<?xml version="1.0" encoding="UTF-8"?>

<!-- generated on 08/19/19 02:34:22 by Eclipse SUMO GUI Version 1.2.0
<configuration xmlns:xsi="http://www.w3.org/2001/XMLSchema-instance" xsi:noNamespaceSchemaLocation="http://sumo.dlr.de/xsd/sumoConfiguration.xsd">

    <input>
        <net-file value="./net.net.xml"/>
        <route-files value="./input_routes.rou.xml"/>
    </input>

    <output>
        <netstate-dump value="./out.xml"/>
    </output>

    <time>
        <begin value="0"/>
        <end value="1030"/>
        <step-length value="1"/>
    </time>

    <processing>
        <lateral-resolution value="0.64"/>
        <time-to-teleport value="-1"/>
    </processing>

    <report>
        <xml-validation value="never"/>
        <duration-log.disable value="true"/>
        <no-step-log value="true"/>
    </report>

    <traci_server>
        <remote-port value="63971"/>
    </traci_server>

    <gui_only>
        <gui-settings-file value="./cross.settings.xml"/>
        <tracker-interval value="1"/>
    </gui_only>

</configuration>
-->

<netstate xmlns:xsi="http://www.w3.org/2001/XMLSchema-instance" xsi:noNamespaceSchemaLocation="http://sumo.dlr.de/xsd/netstate_file.xsd">
    <timestep time="0.00">
        <edge id="1fi">
            <lane id="1fi_0">
                <vehicle id="arA.0" pos="5.10" speed="0.00" posLat="0.00"/>
            </lane>
            <lane id="1fi_1"/>
            <lane id="1fi_2"/>
        </edge>
        <edge id="2fi">
            <lane id="2fi_0">
                <vehicle id="hoA.0" pos="5.10" speed="0.00" posLat="0.00"/>
            </lane>
            <lane id="2fi_1"/>
            <lane id="2fi_2"/>
        </edge>
        <edge id="3fi">
            <lane id="3fi_0">
                <vehicle id="alA.0" pos="5.10" speed="0.00" posLat="0.00"/>
            </lane>
            <lane id="3fi_1"/>
            <lane id="3fi_2"/>
        </edge>
    </timestep>
    <timestep time="1.00">
        <edge id="1fi">
            <lane id="1fi_0">
                <vehicle id="arA.0" pos="6.10" speed="1.00" posLat="0.00"/>
            </lane>
            <lane id="1fi_1"/>
            <lane id="1fi_2"/>
        </edge>
        <edge id="2fi">
            <lane id="2fi_0">
                <vehicle id="hoA.0" pos="6.10" speed="1.00" posLat="0.00"/>
            </lane>
            <lane id="2fi_1"/>
            <lane id="2fi_2"/>
        </edge>
        <edge id="3fi">
            <lane id="3fi_0">
                <vehicle id="alA.0" pos="6.10" speed="1.00" posLat="0.00"/>
            </lane>
            <lane id="3fi_1"/>
            <lane id="3fi_2"/>
        </edge>
    </timestep>
    <timestep time="2.00">
        <edge id="1fi">
            <lane id="1fi_0">
                <vehicle id="arA.0" pos="8.10" speed="2.00" posLat="0.00"/>
            </lane>
            <lane id="1fi_1"/>
            <lane id="1fi_2"/>
        </edge>
        <edge id="2fi">
            <lane id="2fi_0">
                <vehicle id="hoA.0" pos="8.10" speed="2.00" posLat="0.00"/>
            </lane>
            <lane id="2fi_1"/>
            <lane id="2fi_2"/>
        </edge>
        <edge id="3fi">
            <lane id="3fi_0">
                <vehicle id="alA.0" pos="8.10" speed="2.00" posLat="0.00"/>
            </lane>
            <lane id="3fi_1"/>
            <lane id="3fi_2"/>
        </edge>
    </timestep>
    <timestep time="3.00">
        <edge id="1fi">
            <lane id="1fi_0">
                <vehicle id="arA.0" pos="11.10" speed="3.00" posLat="0.00"/>
            </lane>
            <lane id="1fi_1"/>
            <lane id="1fi_2"/>
        </edge>
        <edge id="2fi">
            <lane id="2fi_0">
                <vehicle id="hoA.0" pos="11.10" speed="3.00" posLat="0.00"/>
            </lane>
            <lane id="2fi_1"/>
            <lane id="2fi_2"/>
        </edge>
        <edge id="3fi">
            <lane id="3fi_0">
                <vehicle id="alA.0" pos="11.10" speed="3.00" posLat="0.00"/>
            </lane>
            <lane id="3fi_1"/>
            <lane id="3fi_2"/>
        </edge>
    </timestep>
    <timestep time="4.00">
        <edge id="1fi">
            <lane id="1fi_0">
                <vehicle id="arC.0" pos="5.10" speed="0.00" posLat="0.00"/>
                <vehicle id="arA.0" pos="15.10" speed="4.00" posLat="0.00"/>
            </lane>
            <lane id="1fi_1"/>
            <lane id="1fi_2"/>
        </edge>
        <edge id="2fi">
            <lane id="2fi_0">
                <vehicle id="hoC.0" pos="5.10" speed="0.00" posLat="0.00"/>
                <vehicle id="hoA.0" pos="15.10" speed="4.00" posLat="0.00"/>
            </lane>
            <lane id="2fi_1"/>
            <lane id="2fi_2"/>
        </edge>
        <edge id="3fi">
            <lane id="3fi_0">
                <vehicle id="alC.0" pos="5.10" speed="0.00" posLat="0.00"/>
                <vehicle id="alA.0" pos="15.10" speed="4.00" posLat="0.00"/>
            </lane>
            <lane id="3fi_1"/>
            <lane id="3fi_2"/>
        </edge>
    </timestep>
    <timestep time="5.00">
        <edge id="1fi">
            <lane id="1fi_0">
                <vehicle id="arC.0" pos="6.10" speed="1.00" posLat="0.00"/>
                <vehicle id="arA.0" pos="20.10" speed="5.00" posLat="0.00"/>
            </lane>
            <lane id="1fi_1"/>
            <lane id="1fi_2"/>
        </edge>
        <edge id="2fi">
            <lane id="2fi_0">
                <vehicle id="hoC.0" pos="6.10" speed="1.00" posLat="0.00"/>
                <vehicle id="hoA.0" pos="20.10" speed="5.00" posLat="0.00"/>
            </lane>
            <lane id="2fi_1"/>
            <lane id="2fi_2"/>
        </edge>
        <edge id="3fi">
            <lane id="3fi_0">
                <vehicle id="alC.0" pos="6.10" speed="1.00" posLat="0.00"/>
                <vehicle id="alA.0" pos="20.10" speed="5.00" posLat="0.00"/>
            </lane>
            <lane id="3fi_1"/>
            <lane id="3fi_2"/>
        </edge>
    </timestep>
    <timestep time="6.00">
        <edge id="1fi">
            <lane id="1fi_0">
                <vehicle id="arC.0" pos="8.10" speed="2.00" posLat="0.00"/>
                <vehicle id="arA.0" pos="26.10" speed="6.00" posLat="0.00"/>
            </lane>
            <lane id="1fi_1"/>
            <lane id="1fi_2"/>
        </edge>
        <edge id="2fi">
            <lane id="2fi_0">
                <vehicle id="hoC.0" pos="8.10" speed="2.00" posLat="0.00"/>
                <vehicle id="hoA.0" pos="26.10" speed="6.00" posLat="0.00"/>
            </lane>
            <lane id="2fi_1"/>
            <lane id="2fi_2"/>
        </edge>
        <edge id="3fi">
            <lane id="3fi_0">
                <vehicle id="alC.0" pos="8.10" speed="2.00" posLat="0.00"/>
                <vehicle id="alA.0" pos="26.10" speed="6.00" posLat="0.00"/>
            </lane>
            <lane id="3fi_1"/>
            <lane id="3fi_2"/>
        </edge>
    </timestep>
    <timestep time="7.00">
        <edge id="1fi">
            <lane id="1fi_0">
                <vehicle id="arC.0" pos="11.10" speed="3.00" posLat="0.00"/>
                <vehicle id="arA.0" pos="33.10" speed="7.00" posLat="0.00"/>
            </lane>
            <lane id="1fi_1"/>
            <lane id="1fi_2"/>
        </edge>
        <edge id="2fi">
            <lane id="2fi_0">
                <vehicle id="hoC.0" pos="11.10" speed="3.00" posLat="0.00"/>
                <vehicle id="hoA.0" pos="33.10" speed="7.00" posLat="0.00"/>
            </lane>
            <lane id="2fi_1"/>
            <lane id="2fi_2"/>
        </edge>
        <edge id="3fi">
            <lane id="3fi_0">
                <vehicle id="alC.0" pos="11.10" speed="3.00" posLat="0.00"/>
                <vehicle id="alA.0" pos="33.10" speed="7.00" posLat="0.00"/>
            </lane>
            <lane id="3fi_1"/>
            <lane id="3fi_2"/>
        </edge>
    </timestep>
    <timestep time="8.00">
        <edge id="1fi">
            <lane id="1fi_0">
                <vehicle id="arC.0" pos="15.10" speed="4.00" posLat="1.00"/>
                <vehicle id="arA.0" pos="41.10" speed="8.00" posLat="0.00"/>
            </lane>
            <lane id="1fi_1"/>
            <lane id="1fi_2"/>
        </edge>
        <edge id="2fi">
            <lane id="2fi_0">
                <vehicle id="hoC.0" pos="15.10" speed="4.00" posLat="0.00"/>
                <vehicle id="hoA.0" pos="41.10" speed="8.00" posLat="0.00"/>
            </lane>
            <lane id="2fi_1"/>
            <lane id="2fi_2"/>
        </edge>
        <edge id="3fi">
            <lane id="3fi_0">
                <vehicle id="veA.0" pos="5.10" speed="0.00" posLat="0.00"/>
                <vehicle id="alC.0" pos="15.10" speed="4.00" posLat="0.00"/>
                <vehicle id="alA.0" pos="41.10" speed="8.00" posLat="0.00"/>
            </lane>
            <lane id="3fi_1"/>
            <lane id="3fi_2"/>
        </edge>
    </timestep>
    <timestep time="9.00">
        <edge id="1fi">
            <lane id="1fi_0">
                <vehicle id="arA.0" pos="50.10" speed="9.00" posLat="0.00"/>
            </lane>
            <lane id="1fi_1">
                <vehicle id="arC.0" pos="20.10" speed="5.00" posLat="-1.20"/>
            </lane>
            <lane id="1fi_2"/>
        </edge>
        <edge id="2fi">
            <lane id="2fi_0">
                <vehicle id="hoC.0" pos="20.10" speed="5.00" posLat="0.00"/>
                <vehicle id="hoA.0" pos="50.10" speed="9.00" posLat="0.00"/>
            </lane>
            <lane id="2fi_1"/>
            <lane id="2fi_2"/>
        </edge>
        <edge id="3fi">
            <lane id="3fi_0">
                <vehicle id="veA.0" pos="6.10" speed="1.00" posLat="0.00"/>
                <vehicle id="alC.0" pos="20.10" speed="5.00" posLat="0.00"/>
                <vehicle id="alA.0" pos="50.10" speed="9.00" posLat="0.00"/>
            </lane>
            <lane id="3fi_1"/>
            <lane id="3fi_2"/>
        </edge>
    </timestep>
    <timestep time="10.00">
        <edge id="1fi">
            <lane id="1fi_0">
                <vehicle id="arA.0" pos="60.10" speed="10.00" posLat="1.00"/>
            </lane>
            <lane id="1fi_1">
                <vehicle id="arC.0" pos="26.10" speed="6.00" posLat="-0.20"/>
            </lane>
            <lane id="1fi_2"/>
        </edge>
        <edge id="2fi">
            <lane id="2fi_0">
                <vehicle id="hoC.0" pos="26.10" speed="6.00" posLat="0.00"/>
                <vehicle id="hoA.0" pos="60.10" speed="10.00" posLat="0.00"/>
            </lane>
            <lane id="2fi_1"/>
            <lane id="2fi_2"/>
        </edge>
        <edge id="3fi">
            <lane id="3fi_0">
                <vehicle id="veA.0" pos="8.10" speed="2.00" posLat="0.00"/>
                <vehicle id="alC.0" pos="26.10" speed="6.00" posLat="0.00"/>
                <vehicle id="alA.0" pos="60.10" speed="10.00" posLat="0.00"/>
            </lane>
            <lane id="3fi_1"/>
            <lane id="3fi_2"/>
        </edge>
    </timestep>
    <timestep time="11.00">
        <edge id="1fi">
            <lane id="1fi_0"/>
            <lane id="1fi_1">
                <vehicle id="arC.0" pos="33.10" speed="7.00" posLat="0.80"/>
                <vehicle id="arA.0" pos="71.10" speed="11.00" posLat="-1.20"/>
            </lane>
            <lane id="1fi_2"/>
        </edge>
        <edge id="2fi">
            <lane id="2fi_0">
                <vehicle id="hoC.0" pos="33.10" speed="7.00" posLat="0.00"/>
                <vehicle id="hoA.0" pos="71.10" speed="11.00" posLat="0.00"/>
            </lane>
            <lane id="2fi_1"/>
            <lane id="2fi_2"/>
        </edge>
        <edge id="3fi">
            <lane id="3fi_0">
                <vehicle id="veA.0" pos="11.10" speed="3.00" posLat="1.00"/>
                <vehicle id="alC.0" pos="33.10" speed="7.00" posLat="0.00"/>
                <vehicle id="alA.0" pos="71.10" speed="11.00" posLat="0.00"/>
            </lane>
            <lane id="3fi_1"/>
            <lane id="3fi_2"/>
        </edge>
    </timestep>
    <timestep time="12.00">
        <edge id="1fi">
            <lane id="1fi_0"/>
            <lane id="1fi_1">
                <vehicle id="arC.0" pos="41.10" speed="8.00" posLat="0.80"/>
                <vehicle id="arA.0" pos="82.33" speed="11.23" posLat="-0.20"/>
            </lane>
            <lane id="1fi_2"/>
        </edge>
        <edge id="2fi">
            <lane id="2fi_0">
                <vehicle id="hoC.0" pos="41.10" speed="8.00" posLat="0.00"/>
                <vehicle id="hoA.0" pos="82.55" speed="11.45" posLat="0.00"/>
            </lane>
            <lane id="2fi_1"/>
            <lane id="2fi_2"/>
        </edge>
        <edge id="3fi">
            <lane id="3fi_0">
                <vehicle id="veC.0" pos="5.10" speed="0.00" posLat="0.00"/>
                <vehicle id="alC.0" pos="41.10" speed="8.00" posLat="0.00"/>
                <vehicle id="alA.0" pos="82.88" speed="11.78" posLat="0.00"/>
            </lane>
            <lane id="3fi_1">
                <vehicle id="veA.0" pos="15.10" speed="4.00" posLat="-1.20"/>
            </lane>
            <lane id="3fi_2"/>
        </edge>
    </timestep>
    <timestep time="13.00">
        <edge id="1fi">
            <lane id="1fi_0"/>
            <lane id="1fi_1">
                <vehicle id="arC.0" pos="50.10" speed="9.00" posLat="0.00"/>
                <vehicle id="arA.0" pos="93.55" speed="11.23" posLat="0.00"/>
            </lane>
            <lane id="1fi_2"/>
        </edge>
        <edge id="2fi">
            <lane id="2fi_0">
                <vehicle id="hoC.0" pos="50.10" speed="9.00" posLat="0.00"/>
                <vehicle id="hoA.0" pos="93.99" speed="11.45" posLat="0.00"/>
            </lane>
            <lane id="2fi_1"/>
            <lane id="2fi_2"/>
        </edge>
        <edge id="3fi">
            <lane id="3fi_0">
                <vehicle id="veC.0" pos="6.10" speed="1.00" posLat="0.00"/>
                <vehicle id="alC.0" pos="50.10" speed="9.00" posLat="0.00"/>
                <vehicle id="alA.0" pos="94.65" speed="11.78" posLat="0.00"/>
            </lane>
            <lane id="3fi_1">
                <vehicle id="veA.0" pos="20.10" speed="5.00" posLat="-0.20"/>
            </lane>
            <lane id="3fi_2"/>
        </edge>
    </timestep>
    <timestep time="14.00">
        <edge id="1fi">
            <lane id="1fi_0"/>
            <lane id="1fi_1">
                <vehicle id="arC.0" pos="60.10" speed="10.00" posLat="0.00"/>
                <vehicle id="arA.0" pos="104.78" speed="11.23" posLat="0.00"/>
            </lane>
            <lane id="1fi_2"/>
        </edge>
        <edge id="2fi">
            <lane id="2fi_0">
                <vehicle id="hoC.0" pos="59.33" speed="9.23" posLat="0.00"/>
                <vehicle id="hoA.0" pos="105.44" speed="11.45" posLat="0.00"/>
            </lane>
            <lane id="2fi_1"/>
            <lane id="2fi_2"/>
        </edge>
        <edge id="3fi">
            <lane id="3fi_0">
                <vehicle id="veC.0" pos="8.10" speed="2.00" posLat="0.00"/>
                <vehicle id="alC.0" pos="60.10" speed="10.00" posLat="0.00"/>
                <vehicle id="alA.0" pos="106.43" speed="11.78" posLat="0.00"/>
            </lane>
            <lane id="3fi_1">
                <vehicle id="veA.0" pos="26.10" speed="6.00" posLat="0.00"/>
            </lane>
            <lane id="3fi_2"/>
        </edge>
    </timestep>
    <timestep time="15.00">
        <edge id="1fi">
            <lane id="1fi_0"/>
            <lane id="1fi_1">
                <vehicle id="arC.0" pos="71.10" speed="11.00" posLat="0.00"/>
                <vehicle id="arA.0" pos="116.00" speed="11.23" posLat="0.00"/>
            </lane>
            <lane id="1fi_2"/>
        </edge>
        <edge id="2fi">
            <lane id="2fi_0">
                <vehicle id="hoC.0" pos="68.57" speed="9.23" posLat="0.00"/>
                <vehicle id="hoA.0" pos="116.89" speed="11.45" posLat="0.00"/>
            </lane>
            <lane id="2fi_1"/>
            <lane id="2fi_2"/>
        </edge>
        <edge id="3fi">
            <lane id="3fi_0">
                <vehicle id="veC.0" pos="11.10" speed="3.00" posLat="0.00"/>
                <vehicle id="alC.0" pos="70.52" speed="10.42" posLat="0.00"/>
                <vehicle id="alA.0" pos="118.21" speed="11.78" posLat="0.00"/>
            </lane>
            <lane id="3fi_1">
                <vehicle id="veA.0" pos="33.10" speed="7.00" posLat="0.00"/>
            </lane>
            <lane id="3fi_2"/>
        </edge>
    </timestep>
    <timestep time="16.00">
        <edge id="1fi">
            <lane id="1fi_0"/>
            <lane id="1fi_1">
                <vehicle id="arC.0" pos="83.10" speed="12.00" posLat="0.00"/>
                <vehicle id="arA.0" pos="127.23" speed="11.23" posLat="0.00"/>
            </lane>
            <lane id="1fi_2"/>
        </edge>
        <edge id="2fi">
            <lane id="2fi_0">
                <vehicle id="hoC.0" pos="77.80" speed="9.23" posLat="0.00"/>
                <vehicle id="hoA.0" pos="128.33" speed="11.45" posLat="0.00"/>
            </lane>
            <lane id="2fi_1"/>
            <lane id="2fi_2"/>
        </edge>
        <edge id="3fi">
            <lane id="3fi_0">
                <vehicle id="veC.0" pos="15.10" speed="4.00" posLat="0.00"/>
                <vehicle id="alC.0" pos="80.95" speed="10.42" posLat="0.00"/>
                <vehicle id="alA.0" pos="129.98" speed="11.78" posLat="0.00"/>
            </lane>
            <lane id="3fi_1">
                <vehicle id="veA.0" pos="41.10" speed="8.00" posLat="0.00"/>
            </lane>
            <lane id="3fi_2"/>
        </edge>
    </timestep>
    <timestep time="17.00">
        <edge id="1fi">
            <lane id="1fi_0"/>
            <lane id="1fi_1">
                <vehicle id="arC.0" pos="95.13" speed="12.03" posLat="0.00"/>
                <vehicle id="arA.0" pos="138.45" speed="11.23" posLat="0.00"/>
            </lane>
            <lane id="1fi_2"/>
        </edge>
        <edge id="2fi">
            <lane id="2fi_0">
                <vehicle id="hoC.0" pos="87.03" speed="9.23" posLat="0.00"/>
                <vehicle id="hoA.0" pos="139.78" speed="11.45" posLat="0.00"/>
            </lane>
            <lane id="2fi_1"/>
            <lane id="2fi_2"/>
        </edge>
        <edge id="3fi">
            <lane id="3fi_0">
                <vehicle id="veC.0" pos="20.10" speed="5.00" posLat="0.00"/>
                <vehicle id="alC.0" pos="91.37" speed="10.42" posLat="0.00"/>
                <vehicle id="alA.0" pos="141.76" speed="11.78" posLat="0.00"/>
            </lane>
            <lane id="3fi_1">
                <vehicle id="veA.0" pos="50.10" speed="9.00" posLat="0.00"/>
            </lane>
            <lane id="3fi_2"/>
        </edge>
    </timestep>
    <timestep time="18.00">
        <edge id="1fi">
            <lane id="1fi_0"/>
            <lane id="1fi_1">
                <vehicle id="arC.0" pos="107.16" speed="12.03" posLat="0.00"/>
                <vehicle id="arA.0" pos="149.68" speed="11.23" posLat="0.00"/>
            </lane>
            <lane id="1fi_2"/>
        </edge>
        <edge id="2fi">
            <lane id="2fi_0">
                <vehicle id="hoC.0" pos="96.26" speed="9.23" posLat="0.00"/>
                <vehicle id="hoA.0" pos="151.23" speed="11.45" posLat="0.00"/>
            </lane>
            <lane id="2fi_1"/>
            <lane id="2fi_2"/>
        </edge>
        <edge id="3fi">
            <lane id="3fi_0">
                <vehicle id="veC.0" pos="26.10" speed="6.00" posLat="0.00"/>
                <vehicle id="alC.0" pos="101.80" speed="10.42" posLat="0.00"/>
                <vehicle id="alA.0" pos="153.53" speed="11.78" posLat="0.00"/>
            </lane>
            <lane id="3fi_1">
                <vehicle id="veA.0" pos="60.10" speed="10.00" posLat="0.00"/>
            </lane>
            <lane id="3fi_2"/>
        </edge>
    </timestep>
    <timestep time="19.00">
        <edge id="1fi">
            <lane id="1fi_0"/>
            <lane id="1fi_1">
                <vehicle id="arC.0" pos="119.19" speed="12.03" posLat="0.00"/>
                <vehicle id="arA.0" pos="160.90" speed="11.23" posLat="0.00"/>
            </lane>
            <lane id="1fi_2"/>
        </edge>
        <edge id="2fi">
            <lane id="2fi_0">
                <vehicle id="hoC.0" pos="105.50" speed="9.23" posLat="0.00"/>
                <vehicle id="hoA.0" pos="162.67" speed="11.45" posLat="0.00"/>
            </lane>
            <lane id="2fi_1"/>
            <lane id="2fi_2"/>
        </edge>
        <edge id="3fi">
            <lane id="3fi_0">
                <vehicle id="veC.0" pos="33.10" speed="7.00" posLat="0.00"/>
                <vehicle id="alC.0" pos="112.22" speed="10.42" posLat="0.00"/>
                <vehicle id="alA.0" pos="165.31" speed="11.78" posLat="0.00"/>
            </lane>
            <lane id="3fi_1">
                <vehicle id="veA.0" pos="71.10" speed="11.00" posLat="0.00"/>
            </lane>
            <lane id="3fi_2"/>
        </edge>
    </timestep>
    <timestep time="20.00">
        <edge id="1fi">
            <lane id="1fi_0"/>
            <lane id="1fi_1">
                <vehicle id="arC.0" pos="131.21" speed="12.03" posLat="0.00"/>
                <vehicle id="arA.0" pos="172.13" speed="11.23" posLat="0.00"/>
            </lane>
            <lane id="1fi_2"/>
        </edge>
        <edge id="2fi">
            <lane id="2fi_0">
                <vehicle id="hoC.0" pos="114.73" speed="9.23" posLat="0.00"/>
                <vehicle id="hoA.0" pos="174.12" speed="11.45" posLat="0.00"/>
            </lane>
            <lane id="2fi_1"/>
            <lane id="2fi_2"/>
        </edge>
        <edge id="3fi">
            <lane id="3fi_0">
                <vehicle id="veC.0" pos="41.10" speed="8.00" posLat="0.00"/>
                <vehicle id="alC.0" pos="122.65" speed="10.42" posLat="0.00"/>
                <vehicle id="alA.0" pos="177.09" speed="11.78" posLat="0.00"/>
            </lane>
            <lane id="3fi_1">
                <vehicle id="veA.0" pos="82.72" speed="11.62" posLat="0.00"/>
            </lane>
            <lane id="3fi_2"/>
        </edge>
    </timestep>
    <timestep time="21.00">
        <edge id="1fi">
            <lane id="1fi_0"/>
            <lane id="1fi_1">
                <vehicle id="arC.0" pos="143.24" speed="12.03" posLat="0.00"/>
                <vehicle id="arA.0" pos="183.35" speed="11.23" posLat="0.00"/>
            </lane>
            <lane id="1fi_2"/>
        </edge>
        <edge id="2fi">
            <lane id="2fi_0">
                <vehicle id="hoC.0" pos="123.96" speed="9.23" posLat="0.00"/>
                <vehicle id="hoA.0" pos="185.57" speed="11.45" posLat="0.00"/>
            </lane>
            <lane id="2fi_1"/>
            <lane id="2fi_2"/>
        </edge>
        <edge id="3fi">
            <lane id="3fi_0">
                <vehicle id="veC.0" pos="50.10" speed="9.00" posLat="0.00"/>
                <vehicle id="alC.0" pos="133.07" speed="10.42" posLat="0.00"/>
                <vehicle id="alA.0" pos="188.86" speed="11.78" posLat="0.00"/>
            </lane>
            <lane id="3fi_1">
                <vehicle id="veA.0" pos="94.34" speed="11.62" posLat="0.00"/>
            </lane>
            <lane id="3fi_2"/>
        </edge>
    </timestep>
    <timestep time="22.00">
        <edge id="1fi">
            <lane id="1fi_0"/>
            <lane id="1fi_1">
                <vehicle id="arC.0" pos="155.27" speed="12.03" posLat="0.00"/>
                <vehicle id="arA.0" pos="194.58" speed="11.23" posLat="0.00"/>
            </lane>
            <lane id="1fi_2"/>
        </edge>
        <edge id="2fi">
            <lane id="2fi_0">
                <vehicle id="hoC.0" pos="133.20" speed="9.23" posLat="0.00"/>
                <vehicle id="hoA.0" pos="197.01" speed="11.45" posLat="0.00"/>
            </lane>
            <lane id="2fi_1"/>
            <lane id="2fi_2"/>
        </edge>
        <edge id="3fi">
            <lane id="3fi_0">
                <vehicle id="veC.0" pos="59.94" speed="9.84" posLat="0.00"/>
                <vehicle id="alC.0" pos="143.50" speed="10.42" posLat="0.00"/>
                <vehicle id="alA.0" pos="200.64" speed="11.78" posLat="0.00"/>
            </lane>
            <lane id="3fi_1">
                <vehicle id="veA.0" pos="105.96" speed="11.62" posLat="0.00"/>
            </lane>
            <lane id="3fi_2"/>
        </edge>
    </timestep>
    <timestep time="23.00">
        <edge id="1fi">
            <lane id="1fi_0"/>
            <lane id="1fi_1">
                <vehicle id="arC.0" pos="167.30" speed="12.03" posLat="0.00"/>
                <vehicle id="arA.0" pos="205.81" speed="11.23" posLat="0.00"/>
            </lane>
            <lane id="1fi_2"/>
        </edge>
        <edge id="2fi">
            <lane id="2fi_0">
                <vehicle id="hoC.0" pos="142.43" speed="9.23" posLat="0.00"/>
                <vehicle id="hoA.0" pos="208.46" speed="11.45" posLat="0.00"/>
            </lane>
            <lane id="2fi_1"/>
            <lane id="2fi_2"/>
        </edge>
        <edge id="3fi">
            <lane id="3fi_0">
                <vehicle id="veC.0" pos="69.79" speed="9.84" posLat="0.00"/>
                <vehicle id="alC.0" pos="153.92" speed="10.42" posLat="0.00"/>
                <vehicle id="alA.0" pos="212.42" speed="11.78" posLat="0.00"/>
            </lane>
            <lane id="3fi_1">
                <vehicle id="veA.0" pos="117.58" speed="11.62" posLat="0.00"/>
            </lane>
            <lane id="3fi_2"/>
        </edge>
    </timestep>
    <timestep time="24.00">
        <edge id="1fi">
            <lane id="1fi_0"/>
            <lane id="1fi_1">
                <vehicle id="arC.0" pos="179.33" speed="12.03" posLat="0.00"/>
                <vehicle id="arA.0" pos="217.03" speed="11.23" posLat="0.00"/>
            </lane>
            <lane id="1fi_2"/>
        </edge>
        <edge id="2fi">
            <lane id="2fi_0">
                <vehicle id="hoC.0" pos="151.66" speed="9.23" posLat="0.00"/>
                <vehicle id="hoA.0" pos="219.91" speed="11.45" posLat="0.00"/>
            </lane>
            <lane id="2fi_1"/>
            <lane id="2fi_2"/>
        </edge>
        <edge id="3fi">
            <lane id="3fi_0">
                <vehicle id="veC.0" pos="79.63" speed="9.84" posLat="0.00"/>
                <vehicle id="alC.0" pos="164.35" speed="10.42" posLat="0.00"/>
                <vehicle id="alA.0" pos="224.19" speed="11.78" posLat="0.00"/>
            </lane>
            <lane id="3fi_1">
                <vehicle id="veA.0" pos="129.19" speed="11.62" posLat="0.00"/>
            </lane>
            <lane id="3fi_2"/>
        </edge>
    </timestep>
    <timestep time="25.00">
        <edge id="1fi">
            <lane id="1fi_0"/>
            <lane id="1fi_1">
                <vehicle id="arC.0" pos="191.36" speed="12.03" posLat="0.00"/>
                <vehicle id="arA.0" pos="228.26" speed="11.23" posLat="0.00"/>
            </lane>
            <lane id="1fi_2"/>
        </edge>
        <edge id="2fi">
            <lane id="2fi_0">
                <vehicle id="hoC.0" pos="160.89" speed="9.23" posLat="0.00"/>
                <vehicle id="hoA.0" pos="231.35" speed="11.45" posLat="0.00"/>
            </lane>
            <lane id="2fi_1"/>
            <lane id="2fi_2"/>
        </edge>
        <edge id="3fi">
            <lane id="3fi_0">
                <vehicle id="veC.0" pos="89.47" speed="9.84" posLat="0.00"/>
                <vehicle id="alC.0" pos="174.77" speed="10.42" posLat="0.00"/>
                <vehicle id="alA.0" pos="235.97" speed="11.78" posLat="0.00"/>
            </lane>
            <lane id="3fi_1">
                <vehicle id="veA.0" pos="140.81" speed="11.62" posLat="0.00"/>
            </lane>
            <lane id="3fi_2"/>
        </edge>
    </timestep>
    <timestep time="26.00">
        <edge id="1fi">
            <lane id="1fi_0"/>
            <lane id="1fi_1">
                <vehicle id="arC.0" pos="203.38" speed="12.03" posLat="0.00"/>
                <vehicle id="arA.0" pos="239.48" speed="11.23" posLat="0.00"/>
            </lane>
            <lane id="1fi_2"/>
        </edge>
        <edge id="2fi">
            <lane id="2fi_0">
                <vehicle id="hoC.0" pos="170.13" speed="9.23" posLat="0.00"/>
                <vehicle id="hoA.0" pos="242.80" speed="11.45" posLat="0.00"/>
            </lane>
            <lane id="2fi_1"/>
            <lane id="2fi_2"/>
        </edge>
        <edge id="3fi">
            <lane id="3fi_0">
                <vehicle id="veC.0" pos="99.32" speed="9.84" posLat="0.00"/>
                <vehicle id="alC.0" pos="185.19" speed="10.42" posLat="0.00"/>
                <vehicle id="alA.0" pos="247.75" speed="11.78" posLat="0.00"/>
            </lane>
            <lane id="3fi_1">